 Output coordinates in angstroms (scale by  1.889725989 to convert to a.u.)

  No.       Tag          Charge          X              Y              Z
 ---- ---------------- ---------- -------------- -------------- --------------
    1 O                    8.0000     0.00000000     0.00000000    -0.13544600
    2 H                    1.0000    -0.86681000     0.00000000     0.54178400
    3 H                    1.0000     0.86681000     0.00000000     0.54178400

         Total SCF energy =    -75.990178837748

 Vector    2  Occ=2.000000D+00  E=-1.277928D+00  Symmetry=a1

 Vector    3  Occ=2.000000D+00  E=-6.302824D-01  Symmetry=b1

 Vector    4  Occ=2.000000D+00  E=-5.420540D-01  Symmetry=a1

 Vector    5  Occ=2.000000D+00  E=-4.870033D-01  Symmetry=b2

 Vector    6  Occ=0.000000D+00  E= 1.554016D-01  Symmetry=a1

 Vector    7  Occ=0.000000D+00  E= 2.292918D-01  Symmetry=b1

 Vector    8  Occ=0.000000D+00  E= 7.045039D-01  Symmetry=b1

 Vector    9  Occ=0.000000D+00  E= 7.440409D-01  Symmetry=a1

 Vector   10  Occ=0.000000D+00  E= 1.167144D+00  Symmetry=a1

 Vector   11  Occ=0.000000D+00  E= 1.186058D+00  Symmetry=b2

 Vector   12  Occ=0.000000D+00  E= 1.267689D+00  Symmetry=b1

 Vector   13  Occ=0.000000D+00  E= 1.441200D+00  Symmetry=a1

 Vector   14  Occ=0.000000D+00  E= 1.450715D+00  Symmetry=a2

 Vector   15  Occ=0.000000D+00  E= 1.658191D+00  Symmetry=b2

       Multipole analysis of the density wrt the origin
       ------------------------------------------------

     L   x y z        total         open         nuclear
     -   - - -        -----         ----         -------
     0   0 0 0     -0.000000      0.000000     10.000000

     1   1 0 0      0.000000      0.000000      0.000000
     1   0 1 0     -0.000000      0.000000      0.000000
     1   0 0 1      0.856072      0.000000      0.000000

     2   2 0 0     -2.865829      0.000000      5.366307
     2   1 1 0     -0.000000      0.000000      0.000000
     2   1 0 1     -0.000000      0.000000      0.000000
     2   0 2 0     -5.465881      0.000000      0.000000
     2   0 1 1      0.000000      0.000000      0.000000

 Total times  cpu:        0.1s     wall:        0.1s
