 Output coordinates in angstroms (scale by  1.889725989 to convert to a.u.)

  No.       Tag          Charge          X              Y              Z
 ---- ---------------- ---------- -------------- -------------- --------------
    1 O                    8.0000     0.00000000     0.00000000    -0.13544600
    2 H                    1.0000    -0.86681000     0.00000000     0.54178400
    3 H                    1.0000     0.86681000     0.00000000     0.54178400

         Total SCF energy =    -74.942080087200

 Vector    2  Occ=2.000000D+00  E=-1.209698D+00  Symmetry=a1

 Vector    3  Occ=2.000000D+00  E=-5.479642D-01  Symmetry=b1

 Vector    4  Occ=2.000000D+00  E=-4.365280D-01  Symmetry=a1

 Vector    5  Occ=2.000000D+00  E=-3.875870D-01  Symmetry=b2

 Vector    6  Occ=0.000000D+00  E= 4.776192D-01  Symmetry=a1

 Vector    7  Occ=0.000000D+00  E= 5.881385D-01  Symmetry=b1

       Multipole analysis of the density wrt the origin
       ------------------------------------------------

     L   x y z        total         open         nuclear
     -   - - -        -----         ----         -------
     0   0 0 0     -0.000000      0.000000     10.000000

     1   1 0 0      0.000000      0.000000      0.000000
     1   0 1 0      0.000000      0.000000      0.000000
     1   0 0 1      0.603522      0.000000      0.000000

     2   2 0 0     -3.209445      0.000000      5.366307
     2   1 1 0     -0.000000      0.000000      0.000000
     2   1 0 1      0.000000      0.000000      0.000000
     2   0 2 0     -4.615178      0.000000      0.000000
     2   0 1 1      0.000000      0.000000      0.000000

 Total times  cpu:        0.0s     wall:        0.1s
