============================== echo of input deck ==============================
# Hartree-Fock calculation of LiH

start LiH
echo

geometry units atomic
  H 0 0 0
  Li 1.4632 0 0
end

basis "ao basis" CARTESIAN
H    S
      3.42525091             0.15432897
      0.62391373             0.53532814
      0.16885540             0.44463454
Li    S
     16.1195750              0.15432897
      2.9362007              0.53532814
      0.7946505              0.44463454
Li    S
      0.6362897             -0.09996723
      0.1478601              0.39951283
      0.0480887              0.70011547
Li    P
      0.6362897              0.15591627
      0.1478601              0.60768372
      0.0480887              0.39195739
end

#scf
#  print "kinetic"
#end

task scf
================================================================================

 Output coordinates in a.u. (scale by  1.000000000 to convert to a.u.)

  No.       Tag          Charge          X              Y              Z
 ---- ---------------- ---------- -------------- -------------- --------------
    1 H                    1.0000     0.00000000     0.00000000    -1.09740000
    2 Li                   3.0000     0.00000000     0.00000000     0.36580000

         Total SCF energy =     -7.586752627419

 Vector    2  Occ=2.000000D+00  E=-3.048249D-01  Symmetry=a1

 Vector    3  Occ=0.000000D+00  E= 6.564361D-02  Symmetry=a1

 Vector    4  Occ=0.000000D+00  E= 1.472240D-01  Symmetry=e

 Vector    5  Occ=0.000000D+00  E= 1.472240D-01  Symmetry=e

 Vector    6  Occ=0.000000D+00  E= 5.931020D-01  Symmetry=a1

       Multipole analysis of the density wrt the origin
       ------------------------------------------------

     L   x y z        total         open         nuclear
     -   - - -        -----         ----         -------
     0   0 0 0     -0.000000      0.000000      4.000000

     1   1 0 0     -0.000000      0.000000      0.000000
     1   0 1 0      0.000000      0.000000      0.000000
     1   0 0 1      1.942201      0.000000      0.000000

     2   2 0 0     -3.756434      0.000000      0.000000
     2   1 1 0      0.000000      0.000000      0.000000
     2   1 0 1      0.000000      0.000000      0.000000
     2   0 2 0     -3.756434      0.000000      0.000000
     2   0 1 1     -0.000000      0.000000      0.000000

 Total times  cpu:        0.0s     wall:        0.1s
