============================== echo of input deck ==============================
start LiH
echo

geometry units atomic
  H 0 0 0
  Li 1.4632 0 0
end

#basis "ao basis" SPHERICAL
#H    S
#      3.42525091             0.15432897
#      0.62391373             0.53532814
#      0.16885540             0.44463454
#Li    S
#     16.1195750              0.15432897
#      2.9362007              0.53532814
#      0.7946505              0.44463454
#Li    SP
#      0.6362897             -0.09996723             0.15591627
#      0.1478601              0.39951283             0.60768372
#      0.0480887              0.70011547             0.39195739
#end

basis
 * library cc-pvdz
end

task scf
task mp2
================================================================================

 Output coordinates in a.u. (scale by  1.000000000 to convert to a.u.)

  No.       Tag          Charge          X              Y              Z
 ---- ---------------- ---------- -------------- -------------- --------------
    1 H                    1.0000     0.00000000     0.00000000    -1.09740000
    2 Li                   3.0000     0.00000000     0.00000000     0.36580000

         Total SCF energy =     -7.706668384581

 Vector    2  Occ=2.000000D+00  E=-3.114574D-01  Symmetry=a1

 Vector    3  Occ=0.000000D+00  E= 5.764490D-03  Symmetry=a1

 Vector    4  Occ=0.000000D+00  E= 4.566851D-02  Symmetry=e

 Vector    5  Occ=0.000000D+00  E= 4.566851D-02  Symmetry=e

 Vector    6  Occ=0.000000D+00  E= 9.062842D-02  Symmetry=a1

 Vector    7  Occ=0.000000D+00  E= 1.423365D-01  Symmetry=a1

 Vector    8  Occ=0.000000D+00  E= 1.771118D-01  Symmetry=e

 Vector    9  Occ=0.000000D+00  E= 1.771118D-01  Symmetry=e

 Vector   10  Occ=0.000000D+00  E= 3.475581D-01  Symmetry=a1

 Vector   11  Occ=0.000000D+00  E= 3.721822D-01  Symmetry=e

 Vector   12  Occ=0.000000D+00  E= 3.721822D-01  Symmetry=e

 Vector   13  Occ=0.000000D+00  E= 3.749262D-01  Symmetry=b1

 Vector   14  Occ=0.000000D+00  E= 3.749262D-01  Symmetry=b2

 Vector   15  Occ=0.000000D+00  E= 6.554449D-01  Symmetry=a1

         Total SCF energy =     -7.706668384679

 Vector    2  Occ=2.000000D+00  E=-3.114551D-01  Symmetry=a1

 Vector    3  Occ=0.000000D+00  E= 5.764394D-03  Symmetry=a1

 Vector    4  Occ=0.000000D+00  E= 4.566869D-02  Symmetry=e

 Vector    5  Occ=0.000000D+00  E= 4.566869D-02  Symmetry=e

 Vector    6  Occ=0.000000D+00  E= 9.062869D-02  Symmetry=a1

 Vector    7  Occ=0.000000D+00  E= 1.423368D-01  Symmetry=a1

 Vector    8  Occ=0.000000D+00  E= 1.771126D-01  Symmetry=e

 Vector    9  Occ=0.000000D+00  E= 1.771126D-01  Symmetry=e

 Vector   10  Occ=0.000000D+00  E= 3.475585D-01  Symmetry=a1

 Vector   11  Occ=0.000000D+00  E= 3.721829D-01  Symmetry=e

 Vector   12  Occ=0.000000D+00  E= 3.721829D-01  Symmetry=e

 Vector   13  Occ=0.000000D+00  E= 3.749265D-01  Symmetry=b1

 Vector   14  Occ=0.000000D+00  E= 3.749265D-01  Symmetry=b2

 Vector   15  Occ=0.000000D+00  E= 6.554468D-01  Symmetry=a1

       Multipole analysis of the density wrt the origin
       ------------------------------------------------

     L   x y z        total         open         nuclear
     -   - - -        -----         ----         -------
     0   0 0 0     -0.000000      0.000000      4.000000

     1   1 0 0      0.000000      0.000000      0.000000
     1   0 1 0     -0.000000      0.000000      0.000000
     1   0 0 1      1.999655      0.000000      0.000000

     2   2 0 0     -3.846106      0.000000      0.000000
     2   1 1 0     -0.000000      0.000000      0.000000
     2   1 0 1      0.000000      0.000000      0.000000
     2   0 2 0     -3.846106      0.000000      0.000000
     2   0 1 1      0.000000      0.000000      0.000000

          Total MP2 energy            -7.740438459868
 Total times  cpu:        0.2s     wall:        0.3s
